  COHP#       atomMU       atomNU     distance     translation      ICOHP (at) eF   for spin  1
      1          Ru1          O19      2.00705       0   0   0           -1.45125 
      1       Ru1_5s       O19_2s      2.00705       0   0   0           -0.34721 
      1       Ru1_5s     O19_2p_y      2.00705       0   0   0           -0.04533 
      1       Ru1_5s     O19_2p_z      2.00705       0   0   0           -0.00476 
      1       Ru1_5s     O19_2p_x      2.00705       0   0   0           -0.07538 
      1    Ru1_4d_xy       O19_2s      2.00705       0   0   0           -0.21616 
      1    Ru1_4d_xy     O19_2p_y      2.00705       0   0   0           -0.13749 
      1    Ru1_4d_xy     O19_2p_z      2.00705       0   0   0            0.00000 
      1    Ru1_4d_xy     O19_2p_x      2.00705       0   0   0           -0.31083 
      1    Ru1_4d_yz       O19_2s      2.00705       0   0   0           -0.00000 
      1    Ru1_4d_yz     O19_2p_y      2.00705       0   0   0            0.00000 
      1    Ru1_4d_yz     O19_2p_z      2.00705       0   0   0           -0.01335 
      1    Ru1_4d_yz     O19_2p_x      2.00705       0   0   0           -0.00005 
      1   Ru1_4d_z^2       O19_2s      2.00705       0   0   0           -0.06026 
      1   Ru1_4d_z^2     O19_2p_y      2.00705       0   0   0           -0.05280 
      1   Ru1_4d_z^2     O19_2p_z      2.00705       0   0   0           -0.00205 
      1   Ru1_4d_z^2     O19_2p_x      2.00705       0   0   0           -0.09938 
      1    Ru1_4d_xz       O19_2s      2.00705       0   0   0           -0.00001 
      1    Ru1_4d_xz     O19_2p_y      2.00705       0   0   0           -0.00000 
      1    Ru1_4d_xz     O19_2p_z      2.00705       0   0   0           -0.04019 
      1    Ru1_4d_xz     O19_2p_x      2.00705       0   0   0           -0.00001 
      1 Ru1_4d_x^2-y^2       O19_2s      2.00705       0   0   0           -0.00357 
      1 Ru1_4d_x^2-y^2     O19_2p_y      2.00705       0   0   0           -0.04158 
      1 Ru1_4d_x^2-y^2     O19_2p_z      2.00705       0   0   0            0.00001 
      1 Ru1_4d_x^2-y^2     O19_2p_x      2.00705       0   0   0           -0.00084 
      2          Ru1          O20      2.00705       0   0   0           -1.45124 
      2       Ru1_5s       O20_2s      2.00705       0   0   0           -0.34748 
      2       Ru1_5s     O20_2p_y      2.00705       0   0   0           -0.04529 
      2       Ru1_5s     O20_2p_z      2.00705       0   0   0           -0.00469 
      2       Ru1_5s     O20_2p_x      2.00705       0   0   0           -0.07524 
      2    Ru1_4d_xy       O20_2s      2.00705       0   0   0           -0.21617 
      2    Ru1_4d_xy     O20_2p_y      2.00705       0   0   0           -0.13743 
      2    Ru1_4d_xy     O20_2p_z      2.00705       0   0   0            0.00000 
      2    Ru1_4d_xy     O20_2p_x      2.00705       0   0   0           -0.31079 
      2    Ru1_4d_yz       O20_2s      2.00705       0   0   0           -0.00000 
      2    Ru1_4d_yz     O20_2p_y      2.00705       0   0   0            0.00000 
      2    Ru1_4d_yz     O20_2p_z      2.00705       0   0   0           -0.01338 
      2    Ru1_4d_yz     O20_2p_x      2.00705       0   0   0           -0.00005 
      2   Ru1_4d_z^2       O20_2s      2.00705       0   0   0           -0.06027 
      2   Ru1_4d_z^2     O20_2p_y      2.00705       0   0   0           -0.05281 
      2   Ru1_4d_z^2     O20_2p_z      2.00705       0   0   0           -0.00207 
      2   Ru1_4d_z^2     O20_2p_x      2.00705       0   0   0           -0.09931 
      2    Ru1_4d_xz       O20_2s      2.00705       0   0   0           -0.00001 
      2    Ru1_4d_xz     O20_2p_y      2.00705       0   0   0           -0.00000 
      2    Ru1_4d_xz     O20_2p_z      2.00705       0   0   0           -0.04020 
      2    Ru1_4d_xz     O20_2p_x      2.00705       0   0   0           -0.00001 
      2 Ru1_4d_x^2-y^2       O20_2s      2.00705       0   0   0           -0.00357 
      2 Ru1_4d_x^2-y^2     O20_2p_y      2.00705       0   0   0           -0.04164 
      2 Ru1_4d_x^2-y^2     O20_2p_z      2.00705       0   0   0            0.00000 
      2 Ru1_4d_x^2-y^2     O20_2p_x      2.00705       0   0   0           -0.00084 
      3          Ru1          O21      2.00706       0  -1   0           -1.45121 
      3       Ru1_5s       O21_2s      2.00706       0  -1   0           -0.34717 
      3       Ru1_5s     O21_2p_y      2.00706       0  -1   0           -0.04534 
      3       Ru1_5s     O21_2p_z      2.00706       0  -1   0           -0.00476 
      3       Ru1_5s     O21_2p_x      2.00706       0  -1   0           -0.07538 
      3    Ru1_4d_xy       O21_2s      2.00706       0  -1   0           -0.21616 
      3    Ru1_4d_xy     O21_2p_y      2.00706       0  -1   0           -0.13749 
      3    Ru1_4d_xy     O21_2p_z      2.00706       0  -1   0            0.00000 
      3    Ru1_4d_xy     O21_2p_x      2.00706       0  -1   0           -0.31083 
      3    Ru1_4d_yz       O21_2s      2.00706       0  -1   0           -0.00000 
      3    Ru1_4d_yz     O21_2p_y      2.00706       0  -1   0            0.00000 
      3    Ru1_4d_yz     O21_2p_z      2.00706       0  -1   0           -0.01335 
      3    Ru1_4d_yz     O21_2p_x      2.00706       0  -1   0           -0.00005 
      3   Ru1_4d_z^2       O21_2s      2.00706       0  -1   0           -0.06026 
      3   Ru1_4d_z^2     O21_2p_y      2.00706       0  -1   0           -0.05280 
      3   Ru1_4d_z^2     O21_2p_z      2.00706       0  -1   0           -0.00205 
      3   Ru1_4d_z^2     O21_2p_x      2.00706       0  -1   0           -0.09938 
      3    Ru1_4d_xz       O21_2s      2.00706       0  -1   0           -0.00001 
      3    Ru1_4d_xz     O21_2p_y      2.00706       0  -1   0           -0.00000 
      3    Ru1_4d_xz     O21_2p_z      2.00706       0  -1   0           -0.04019 
      3    Ru1_4d_xz     O21_2p_x      2.00706       0  -1   0           -0.00001 
      3 Ru1_4d_x^2-y^2       O21_2s      2.00706       0  -1   0           -0.00357 
      3 Ru1_4d_x^2-y^2     O21_2p_y      2.00706       0  -1   0           -0.04158 
      3 Ru1_4d_x^2-y^2     O21_2p_z      2.00706       0  -1   0            0.00001 
      3 Ru1_4d_x^2-y^2     O21_2p_x      2.00706       0  -1   0           -0.00084 
      4          Ru1          O22      2.00706       0  -1   0           -1.45119 
      4       Ru1_5s       O22_2s      2.00706       0  -1   0           -0.34744 
      4       Ru1_5s     O22_2p_y      2.00706       0  -1   0           -0.04530 
      4       Ru1_5s     O22_2p_z      2.00706       0  -1   0           -0.00468 
      4       Ru1_5s     O22_2p_x      2.00706       0  -1   0           -0.07523 
      4    Ru1_4d_xy       O22_2s      2.00706       0  -1   0           -0.21616 
      4    Ru1_4d_xy     O22_2p_y      2.00706       0  -1   0           -0.13743 
      4    Ru1_4d_xy     O22_2p_z      2.00706       0  -1   0            0.00000 
      4    Ru1_4d_xy     O22_2p_x      2.00706       0  -1   0           -0.31078 
      4    Ru1_4d_yz       O22_2s      2.00706       0  -1   0           -0.00000 
      4    Ru1_4d_yz     O22_2p_y      2.00706       0  -1   0            0.00000 
      4    Ru1_4d_yz     O22_2p_z      2.00706       0  -1   0           -0.01338 
      4    Ru1_4d_yz     O22_2p_x      2.00706       0  -1   0           -0.00005 
      4   Ru1_4d_z^2       O22_2s      2.00706       0  -1   0           -0.06027 
      4   Ru1_4d_z^2     O22_2p_y      2.00706       0  -1   0           -0.05281 
      4   Ru1_4d_z^2     O22_2p_z      2.00706       0  -1   0           -0.00207 
      4   Ru1_4d_z^2     O22_2p_x      2.00706       0  -1   0           -0.09930 
      4    Ru1_4d_xz       O22_2s      2.00706       0  -1   0           -0.00001 
      4    Ru1_4d_xz     O22_2p_y      2.00706       0  -1   0           -0.00000 
      4    Ru1_4d_xz     O22_2p_z      2.00706       0  -1   0           -0.04020 
      4    Ru1_4d_xz     O22_2p_x      2.00706       0  -1   0           -0.00001 
      4 Ru1_4d_x^2-y^2       O22_2s      2.00706       0  -1   0           -0.00357 
      4 Ru1_4d_x^2-y^2     O22_2p_y      2.00706       0  -1   0           -0.04164 
      4 Ru1_4d_x^2-y^2     O22_2p_z      2.00706       0  -1   0            0.00000 
      4 Ru1_4d_x^2-y^2     O22_2p_x      2.00706       0  -1   0           -0.00084 
      5          Ru1          O25      1.94798       0   0   0           -1.74996 
      5       Ru1_5s       O25_2s      1.94798       0   0   0           -0.36512 
      5       Ru1_5s     O25_2p_y      1.94798       0   0   0           -0.00000 
      5       Ru1_5s     O25_2p_z      1.94798       0   0   0           -0.10225 
      5       Ru1_5s     O25_2p_x      1.94798       0   0   0            0.00000 
      5    Ru1_4d_xy       O25_2s      1.94798       0   0   0           -0.00000 
      5    Ru1_4d_xy     O25_2p_y      1.94798       0   0   0            0.00000 
      5    Ru1_4d_xy     O25_2p_z      1.94798       0   0   0           -0.00000 
      5    Ru1_4d_xy     O25_2p_x      1.94798       0   0   0            0.00000 
      5    Ru1_4d_yz       O25_2s      1.94798       0   0   0           -0.00000 
      5    Ru1_4d_yz     O25_2p_y      1.94798       0   0   0           -0.05598 
      5    Ru1_4d_yz     O25_2p_z      1.94798       0   0   0           -0.00000 
      5    Ru1_4d_yz     O25_2p_x      1.94798       0   0   0           -0.00000 
      5   Ru1_4d_z^2       O25_2s      1.94798       0   0   0           -0.33441 
      5   Ru1_4d_z^2     O25_2p_y      1.94798       0   0   0           -0.00000 
      5   Ru1_4d_z^2     O25_2p_z      1.94798       0   0   0           -0.84275 
      5   Ru1_4d_z^2     O25_2p_x      1.94798       0   0   0           -0.00000 
      5    Ru1_4d_xz       O25_2s      1.94798       0   0   0            0.00000 
      5    Ru1_4d_xz     O25_2p_y      1.94798       0   0   0           -0.00000 
      5    Ru1_4d_xz     O25_2p_z      1.94798       0   0   0            0.00000 
      5    Ru1_4d_xz     O25_2p_x      1.94798       0   0   0           -0.04855 
      5 Ru1_4d_x^2-y^2       O25_2s      1.94798       0   0   0            0.00003 
      5 Ru1_4d_x^2-y^2     O25_2p_y      1.94798       0   0   0           -0.00000 
      5 Ru1_4d_x^2-y^2     O25_2p_z      1.94798       0   0   0           -0.00094 
      5 Ru1_4d_x^2-y^2     O25_2p_x      1.94798       0   0   0           -0.00000 
      6          Ru2          O19      2.00705       1   0   0           -1.45271 
      6       Ru2_5s       O19_2s      2.00705       1   0   0           -0.34818 
      6       Ru2_5s     O19_2p_y      2.00705       1   0   0           -0.04554 
      6       Ru2_5s     O19_2p_z      2.00705       1   0   0           -0.00474 
      6       Ru2_5s     O19_2p_x      2.00705       1   0   0           -0.07555 
      6    Ru2_4d_xy       O19_2s      2.00705       1   0   0           -0.21616 
      6    Ru2_4d_xy     O19_2p_y      2.00705       1   0   0           -0.13748 
      6    Ru2_4d_xy     O19_2p_z      2.00705       1   0   0            0.00000 
      6    Ru2_4d_xy     O19_2p_x      2.00705       1   0   0           -0.31083 
      6    Ru2_4d_yz       O19_2s      2.00705       1   0   0           -0.00000 
      6    Ru2_4d_yz     O19_2p_y      2.00705       1   0   0            0.00000 
      6    Ru2_4d_yz     O19_2p_z      2.00705       1   0   0           -0.01335 
      6    Ru2_4d_yz     O19_2p_x      2.00705       1   0   0           -0.00005 
      6   Ru2_4d_z^2       O19_2s      2.00705       1   0   0           -0.06029 
      6   Ru2_4d_z^2     O19_2p_y      2.00705       1   0   0           -0.05283 
      6   Ru2_4d_z^2     O19_2p_z      2.00705       1   0   0           -0.00205 
      6   Ru2_4d_z^2     O19_2p_x      2.00705       1   0   0           -0.09948 
      6    Ru2_4d_xz       O19_2s      2.00705       1   0   0           -0.00001 
      6    Ru2_4d_xz     O19_2p_y      2.00705       1   0   0           -0.00000 
      6    Ru2_4d_xz     O19_2p_z      2.00705       1   0   0           -0.04019 
      6    Ru2_4d_xz     O19_2p_x      2.00705       1   0   0           -0.00001 
      6 Ru2_4d_x^2-y^2       O19_2s      2.00705       1   0   0           -0.00357 
      6 Ru2_4d_x^2-y^2     O19_2p_y      2.00705       1   0   0           -0.04159 
      6 Ru2_4d_x^2-y^2     O19_2p_z      2.00705       1   0   0            0.00001 
      6 Ru2_4d_x^2-y^2     O19_2p_x      2.00705       1   0   0           -0.00082 
      7          Ru2          O20      2.00705       0   0   0           -1.45269 
      7       Ru2_5s       O20_2s      2.00705       0   0   0           -0.34844 
      7       Ru2_5s     O20_2p_y      2.00705       0   0   0           -0.04550 
      7       Ru2_5s     O20_2p_z      2.00705       0   0   0           -0.00467 
      7       Ru2_5s     O20_2p_x      2.00705       0   0   0           -0.07541 
      7    Ru2_4d_xy       O20_2s      2.00705       0   0   0           -0.21617 
      7    Ru2_4d_xy     O20_2p_y      2.00705       0   0   0           -0.13743 
      7    Ru2_4d_xy     O20_2p_z      2.00705       0   0   0            0.00000 
      7    Ru2_4d_xy     O20_2p_x      2.00705       0   0   0           -0.31079 
      7    Ru2_4d_yz       O20_2s      2.00705       0   0   0           -0.00000 
      7    Ru2_4d_yz     O20_2p_y      2.00705       0   0   0            0.00000 
      7    Ru2_4d_yz     O20_2p_z      2.00705       0   0   0           -0.01338 
      7    Ru2_4d_yz     O20_2p_x      2.00705       0   0   0           -0.00005 
      7   Ru2_4d_z^2       O20_2s      2.00705       0   0   0           -0.06031 
      7   Ru2_4d_z^2     O20_2p_y      2.00705       0   0   0           -0.05283 
      7   Ru2_4d_z^2     O20_2p_z      2.00705       0   0   0           -0.00207 
      7   Ru2_4d_z^2     O20_2p_x      2.00705       0   0   0           -0.09940 
      7    Ru2_4d_xz       O20_2s      2.00705       0   0   0           -0.00001 
      7    Ru2_4d_xz     O20_2p_y      2.00705       0   0   0           -0.00000 
      7    Ru2_4d_xz     O20_2p_z      2.00705       0   0   0           -0.04020 
      7    Ru2_4d_xz     O20_2p_x      2.00705       0   0   0           -0.00001 
      7 Ru2_4d_x^2-y^2       O20_2s      2.00705       0   0   0           -0.00357 
      7 Ru2_4d_x^2-y^2     O20_2p_y      2.00705       0   0   0           -0.04164 
      7 Ru2_4d_x^2-y^2     O20_2p_z      2.00705       0   0   0            0.00000 
      7 Ru2_4d_x^2-y^2     O20_2p_x      2.00705       0   0   0           -0.00082 
      8          Ru2          O21      2.00706       1  -1   0           -1.45274 
      8       Ru2_5s       O21_2s      2.00706       1  -1   0           -0.34821 
      8       Ru2_5s     O21_2p_y      2.00706       1  -1   0           -0.04554 
      8       Ru2_5s     O21_2p_z      2.00706       1  -1   0           -0.00474 
      8       Ru2_5s     O21_2p_x      2.00706       1  -1   0           -0.07556 
      8    Ru2_4d_xy       O21_2s      2.00706       1  -1   0           -0.21616 
      8    Ru2_4d_xy     O21_2p_y      2.00706       1  -1   0           -0.13749 
      8    Ru2_4d_xy     O21_2p_z      2.00706       1  -1   0            0.00000 
      8    Ru2_4d_xy     O21_2p_x      2.00706       1  -1   0           -0.31083 
      8    Ru2_4d_yz       O21_2s      2.00706       1  -1   0           -0.00000 
      8    Ru2_4d_yz     O21_2p_y      2.00706       1  -1   0            0.00000 
      8    Ru2_4d_yz     O21_2p_z      2.00706       1  -1   0           -0.01335 
      8    Ru2_4d_yz     O21_2p_x      2.00706       1  -1   0           -0.00005 
      8   Ru2_4d_z^2       O21_2s      2.00706       1  -1   0           -0.06029 
      8   Ru2_4d_z^2     O21_2p_y      2.00706       1  -1   0           -0.05282 
      8   Ru2_4d_z^2     O21_2p_z      2.00706       1  -1   0           -0.00205 
      8   Ru2_4d_z^2     O21_2p_x      2.00706       1  -1   0           -0.09948 
      8    Ru2_4d_xz       O21_2s      2.00706       1  -1   0           -0.00001 
      8    Ru2_4d_xz     O21_2p_y      2.00706       1  -1   0           -0.00000 
      8    Ru2_4d_xz     O21_2p_z      2.00706       1  -1   0           -0.04019 
      8    Ru2_4d_xz     O21_2p_x      2.00706       1  -1   0           -0.00001 
      8 Ru2_4d_x^2-y^2       O21_2s      2.00706       1  -1   0           -0.00357 
      8 Ru2_4d_x^2-y^2     O21_2p_y      2.00706       1  -1   0           -0.04159 
      8 Ru2_4d_x^2-y^2     O21_2p_z      2.00706       1  -1   0            0.00001 
      8 Ru2_4d_x^2-y^2     O21_2p_x      2.00706       1  -1   0           -0.00082 
      9          Ru2          O22      2.00706       0  -1   0           -1.45272 
      9       Ru2_5s       O22_2s      2.00706       0  -1   0           -0.34848 
      9       Ru2_5s     O22_2p_y      2.00706       0  -1   0           -0.04549 
      9       Ru2_5s     O22_2p_z      2.00706       0  -1   0           -0.00467 
      9       Ru2_5s     O22_2p_x      2.00706       0  -1   0           -0.07541 
      9    Ru2_4d_xy       O22_2s      2.00706       0  -1   0           -0.21616 
      9    Ru2_4d_xy     O22_2p_y      2.00706       0  -1   0           -0.13743 
      9    Ru2_4d_xy     O22_2p_z      2.00706       0  -1   0            0.00000 
      9    Ru2_4d_xy     O22_2p_x      2.00706       0  -1   0           -0.31079 
      9    Ru2_4d_yz       O22_2s      2.00706       0  -1   0           -0.00000 
      9    Ru2_4d_yz     O22_2p_y      2.00706       0  -1   0            0.00000 
      9    Ru2_4d_yz     O22_2p_z      2.00706       0  -1   0           -0.01338 
      9    Ru2_4d_yz     O22_2p_x      2.00706       0  -1   0           -0.00005 
      9   Ru2_4d_z^2       O22_2s      2.00706       0  -1   0           -0.06031 
      9   Ru2_4d_z^2     O22_2p_y      2.00706       0  -1   0           -0.05283 
      9   Ru2_4d_z^2     O22_2p_z      2.00706       0  -1   0           -0.00207 
      9   Ru2_4d_z^2     O22_2p_x      2.00706       0  -1   0           -0.09940 
      9    Ru2_4d_xz       O22_2s      2.00706       0  -1   0           -0.00001 
      9    Ru2_4d_xz     O22_2p_y      2.00706       0  -1   0           -0.00000 
      9    Ru2_4d_xz     O22_2p_z      2.00706       0  -1   0           -0.04020 
      9    Ru2_4d_xz     O22_2p_x      2.00706       0  -1   0           -0.00001 
      9 Ru2_4d_x^2-y^2       O22_2s      2.00706       0  -1   0           -0.00357 
      9 Ru2_4d_x^2-y^2     O22_2p_y      2.00706       0  -1   0           -0.04164 
      9 Ru2_4d_x^2-y^2     O22_2p_z      2.00706       0  -1   0            0.00000 
      9 Ru2_4d_x^2-y^2     O22_2p_x      2.00706       0  -1   0           -0.00082 
     10          Ru2          O26      1.94798       0   0   0           -1.75143 
     10       Ru2_5s       O26_2s      1.94798       0   0   0           -0.36593 
     10       Ru2_5s     O26_2p_y      1.94798       0   0   0           -0.00000 
     10       Ru2_5s     O26_2p_z      1.94798       0   0   0           -0.10336 
     10       Ru2_5s     O26_2p_x      1.94798       0   0   0            0.00000 
     10    Ru2_4d_xy       O26_2s      1.94798       0   0   0           -0.00000 
     10    Ru2_4d_xy     O26_2p_y      1.94798       0   0   0            0.00000 
     10    Ru2_4d_xy     O26_2p_z      1.94798       0   0   0           -0.00000 
     10    Ru2_4d_xy     O26_2p_x      1.94798       0   0   0           -0.00000 
     10    Ru2_4d_yz       O26_2s      1.94798       0   0   0           -0.00000 
     10    Ru2_4d_yz     O26_2p_y      1.94798       0   0   0           -0.05598 
     10    Ru2_4d_yz     O26_2p_z      1.94798       0   0   0           -0.00000 
     10    Ru2_4d_yz     O26_2p_x      1.94798       0   0   0           -0.00000 
     10   Ru2_4d_z^2       O26_2s      1.94798       0   0   0           -0.33427 
     10   Ru2_4d_z^2     O26_2p_y      1.94798       0   0   0           -0.00000 
     10   Ru2_4d_z^2     O26_2p_z      1.94798       0   0   0           -0.84244 
     10   Ru2_4d_z^2     O26_2p_x      1.94798       0   0   0           -0.00000 
     10    Ru2_4d_xz       O26_2s      1.94798       0   0   0            0.00000 
     10    Ru2_4d_xz     O26_2p_y      1.94798       0   0   0           -0.00000 
     10    Ru2_4d_xz     O26_2p_z      1.94798       0   0   0            0.00000 
     10    Ru2_4d_xz     O26_2p_x      1.94798       0   0   0           -0.04855 
     10 Ru2_4d_x^2-y^2       O26_2s      1.94798       0   0   0            0.00003 
     10 Ru2_4d_x^2-y^2     O26_2p_y      1.94798       0   0   0           -0.00000 
     10 Ru2_4d_x^2-y^2     O26_2p_z      1.94798       0   0   0           -0.00093 
     10 Ru2_4d_x^2-y^2     O26_2p_x      1.94798       0   0   0           -0.00000 
     11          Ru3          O17      2.00705       0   0   0           -2.02973 
     11       Ru3_5s       O17_2s      2.00705       0   0   0           -0.44786 
     11       Ru3_5s     O17_2p_y      2.00705       0   0   0           -0.00000 
     11       Ru3_5s     O17_2p_z      2.00705       0   0   0           -0.00751 
     11       Ru3_5s     O17_2p_x      2.00705       0   0   0           -0.08717 
     11    Ru3_4d_xy       O17_2s      2.00705       0   0   0           -0.00000 
     11    Ru3_4d_xy     O17_2p_y      2.00705       0   0   0           -0.16616 
     11    Ru3_4d_xy     O17_2p_z      2.00705       0   0   0           -0.00000 
     11    Ru3_4d_xy     O17_2p_x      2.00705       0   0   0           -0.00000 
     11    Ru3_4d_yz       O17_2s      2.00705       0   0   0            0.00000 
     11    Ru3_4d_yz     O17_2p_y      2.00705       0   0   0           -0.11964 
     11    Ru3_4d_yz     O17_2p_z      2.00705       0   0   0            0.00000 
     11    Ru3_4d_yz     O17_2p_x      2.00705       0   0   0            0.00000 
     11   Ru3_4d_z^2       O17_2s      2.00705       0   0   0           -0.00891 
     11   Ru3_4d_z^2     O17_2p_y      2.00705       0   0   0            0.00000 
     11   Ru3_4d_z^2     O17_2p_z      2.00705       0   0   0           -0.10014 
     11   Ru3_4d_z^2     O17_2p_x      2.00705       0   0   0           -0.10042 
     11    Ru3_4d_xz       O17_2s      2.00705       0   0   0           -0.18335 
     11    Ru3_4d_xz     O17_2p_y      2.00705       0   0   0           -0.00000 
     11    Ru3_4d_xz     O17_2p_z      2.00705       0   0   0           -0.17341 
     11    Ru3_4d_xz     O17_2p_x      2.00705       0   0   0           -0.33098 
     11 Ru3_4d_x^2-y^2       O17_2s      2.00705       0   0   0           -0.05152 
     11 Ru3_4d_x^2-y^2     O17_2p_y      2.00705       0   0   0           -0.00000 
     11 Ru3_4d_x^2-y^2     O17_2p_z      2.00705       0   0   0           -0.20920 
     11 Ru3_4d_x^2-y^2     O17_2p_x      2.00705       0   0   0           -0.04347 
     12          Ru3          O18      2.00705      -1   0   0           -2.02968 
     12       Ru3_5s       O18_2s      2.00705      -1   0   0           -0.44783 
     12       Ru3_5s     O18_2p_y      2.00705      -1   0   0           -0.00000 
     12       Ru3_5s     O18_2p_z      2.00705      -1   0   0           -0.00751 
     12       Ru3_5s     O18_2p_x      2.00705      -1   0   0           -0.08717 
     12    Ru3_4d_xy       O18_2s      2.00705      -1   0   0            0.00000 
     12    Ru3_4d_xy     O18_2p_y      2.00705      -1   0   0           -0.16618 
     12    Ru3_4d_xy     O18_2p_z      2.00705      -1   0   0           -0.00000 
     12    Ru3_4d_xy     O18_2p_x      2.00705      -1   0   0            0.00000 
     12    Ru3_4d_yz       O18_2s      2.00705      -1   0   0            0.00000 
     12    Ru3_4d_yz     O18_2p_y      2.00705      -1   0   0           -0.11961 
     12    Ru3_4d_yz     O18_2p_z      2.00705      -1   0   0            0.00000 
     12    Ru3_4d_yz     O18_2p_x      2.00705      -1   0   0            0.00000 
     12   Ru3_4d_z^2       O18_2s      2.00705      -1   0   0           -0.00891 
     12   Ru3_4d_z^2     O18_2p_y      2.00705      -1   0   0           -0.00000 
     12   Ru3_4d_z^2     O18_2p_z      2.00705      -1   0   0           -0.10014 
     12   Ru3_4d_z^2     O18_2p_x      2.00705      -1   0   0           -0.10042 
     12    Ru3_4d_xz       O18_2s      2.00705      -1   0   0           -0.18335 
     12    Ru3_4d_xz     O18_2p_y      2.00705      -1   0   0           -0.00000 
     12    Ru3_4d_xz     O18_2p_z      2.00705      -1   0   0           -0.17340 
     12    Ru3_4d_xz     O18_2p_x      2.00705      -1   0   0           -0.33098 
     12 Ru3_4d_x^2-y^2       O18_2s      2.00705      -1   0   0           -0.05152 
     12 Ru3_4d_x^2-y^2     O18_2p_y      2.00705      -1   0   0           -0.00000 
     12 Ru3_4d_x^2-y^2     O18_2p_z      2.00705      -1   0   0           -0.20919 
     12 Ru3_4d_x^2-y^2     O18_2p_x      2.00705      -1   0   0           -0.04347 
     13          Ru3          O19      1.94798       0   0   0           -1.96837 
     13       Ru3_5s       O19_2s      1.94798       0   0   0           -0.40753 
     13       Ru3_5s     O19_2p_y      1.94798       0   0   0           -0.09154 
     13       Ru3_5s     O19_2p_z      1.94798       0   0   0           -0.00153 
     13       Ru3_5s     O19_2p_x      1.94798       0   0   0           -0.00000 
     13    Ru3_4d_xy       O19_2s      1.94798       0   0   0           -0.00000 
     13    Ru3_4d_xy     O19_2p_y      1.94798       0   0   0           -0.00000 
     13    Ru3_4d_xy     O19_2p_z      1.94798       0   0   0           -0.00000 
     13    Ru3_4d_xy     O19_2p_x      1.94798       0   0   0           -0.12213 
     13    Ru3_4d_yz       O19_2s      1.94798       0   0   0            0.00004 
     13    Ru3_4d_yz     O19_2p_y      1.94798       0   0   0           -0.00002 
     13    Ru3_4d_yz     O19_2p_z      1.94798       0   0   0           -0.32345 
     13    Ru3_4d_yz     O19_2p_x      1.94798       0   0   0            0.00000 
     13   Ru3_4d_z^2       O19_2s      1.94798       0   0   0           -0.08441 
     13   Ru3_4d_z^2     O19_2p_y      1.94798       0   0   0           -0.16833 
     13   Ru3_4d_z^2     O19_2p_z      1.94798       0   0   0           -0.00001 
     13   Ru3_4d_z^2     O19_2p_x      1.94798       0   0   0            0.00000 
     13    Ru3_4d_xz       O19_2s      1.94798       0   0   0           -0.00000 
     13    Ru3_4d_xz     O19_2p_y      1.94798       0   0   0           -0.00000 
     13    Ru3_4d_xz     O19_2p_z      1.94798       0   0   0            0.00000 
     13    Ru3_4d_xz     O19_2p_x      1.94798       0   0   0            0.00000 
     13 Ru3_4d_x^2-y^2       O19_2s      1.94798       0   0   0           -0.26477 
     13 Ru3_4d_x^2-y^2     O19_2p_y      1.94798       0   0   0           -0.50467 
     13 Ru3_4d_x^2-y^2     O19_2p_z      1.94798       0   0   0            0.00000 
     13 Ru3_4d_x^2-y^2     O19_2p_x      1.94798       0   0   0           -0.00000 
     14          Ru3          O21      1.94798       0   0   0           -1.96838 
     14       Ru3_5s       O21_2s      1.94798       0   0   0           -0.40755 
     14       Ru3_5s     O21_2p_y      1.94798       0   0   0           -0.09154 
     14       Ru3_5s     O21_2p_z      1.94798       0   0   0           -0.00153 
     14       Ru3_5s     O21_2p_x      1.94798       0   0   0           -0.00000 
     14    Ru3_4d_xy       O21_2s      1.94798       0   0   0           -0.00000 
     14    Ru3_4d_xy     O21_2p_y      1.94798       0   0   0            0.00000 
     14    Ru3_4d_xy     O21_2p_z      1.94798       0   0   0           -0.00000 
     14    Ru3_4d_xy     O21_2p_x      1.94798       0   0   0           -0.12213 
     14    Ru3_4d_yz       O21_2s      1.94798       0   0   0            0.00004 
     14    Ru3_4d_yz     O21_2p_y      1.94798       0   0   0           -0.00002 
     14    Ru3_4d_yz     O21_2p_z      1.94798       0   0   0           -0.32344 
     14    Ru3_4d_yz     O21_2p_x      1.94798       0   0   0            0.00000 
     14   Ru3_4d_z^2       O21_2s      1.94798       0   0   0           -0.08441 
     14   Ru3_4d_z^2     O21_2p_y      1.94798       0   0   0           -0.16833 
     14   Ru3_4d_z^2     O21_2p_z      1.94798       0   0   0           -0.00001 
     14   Ru3_4d_z^2     O21_2p_x      1.94798       0   0   0            0.00000 
     14    Ru3_4d_xz       O21_2s      1.94798       0   0   0           -0.00000 
     14    Ru3_4d_xz     O21_2p_y      1.94798       0   0   0           -0.00000 
     14    Ru3_4d_xz     O21_2p_z      1.94798       0   0   0            0.00000 
     14    Ru3_4d_xz     O21_2p_x      1.94798       0   0   0            0.00000 
     14 Ru3_4d_x^2-y^2       O21_2s      1.94798       0   0   0           -0.26477 
     14 Ru3_4d_x^2-y^2     O21_2p_y      1.94798       0   0   0           -0.50467 
     14 Ru3_4d_x^2-y^2     O21_2p_z      1.94798       0   0   0            0.00000 
     14 Ru3_4d_x^2-y^2     O21_2p_x      1.94798       0   0   0           -0.00000 
     15          Ru3          O23      2.00705       0   0   0           -1.66998 
     15       Ru3_5s       O23_2s      2.00705       0   0   0           -0.33655 
     15       Ru3_5s     O23_2p_y      2.00705       0   0   0           -0.00000 
     15       Ru3_5s     O23_2p_z      2.00705       0   0   0           -0.03400 
     15       Ru3_5s     O23_2p_x      2.00705       0   0   0           -0.06210 
     15    Ru3_4d_xy       O23_2s      2.00705       0   0   0           -0.00000 
     15    Ru3_4d_xy     O23_2p_y      2.00705       0   0   0           -0.11897 
     15    Ru3_4d_xy     O23_2p_z      2.00705       0   0   0           -0.00000 